+ 1 0 2 tcp 40 ------- 1 0.0 5.0 0 0
- 1 0 2 tcp 40 ------- 1 0.0 5.0 0 0
+ 1 2 3 tcp 40 ------- 2 2.0 3.0 0 1
- 1 2 3 tcp 40 ------- 2 2.0 3.0 0 1
r 1.010003 0 2 tcp 40 ------- 1 0.0 5.0 0 0
+ 1.010003 2 3 tcp 40 ------- 1 0.0 5.0 0 0
- 1.010003 2 3 tcp 40 ------- 1 0.0 5.0 0 0
r 1.010003 2 3 tcp 40 ------- 2 2.0 3.0 0 1
+ 1.010003 3 2 ack 40 ------- 2 3.0 2.0 0 2
- 1.010003 3 2 ack 40 ------- 2 3.0 2.0 0 2
r 1.020006 2 3 tcp 40 ------- 1 0.0 5.0 0 0
h 1.020006 3 6 tcp 40 ------- 1 0.0 5.0 0 0
r 1.020006 3 2 ack 40 ------- 2 3.0 2.0 0 2
+ 1.020006 2 3 tcp 1540 ------- 2 2.0 3.0 1 3
- 1.020006 2 3 tcp 1540 ------- 2 2.0 3.0 1 3
+ 1.020006 2 3 tcp 1540 ------- 2 2.0 3.0 2 4
- 1.02013 2 3 tcp 1540 ------- 2 2.0 3.0 2 4
r 1.03013 2 3 tcp 1540 ------- 2 2.0 3.0 1 3
+ 1.03013 3 2 ack 40 ------- 2 3.0 2.0 1 5
- 1.03013 3 2 ack 40 ------- 2 3.0 2.0 1 5
r 1.030253 2 3 tcp 1540 ------- 2 2.0 3.0 2 4
+ 1.030253 3 2 ack 40 ------- 2 3.0 2.0 2 6
- 1.030253 3 2 ack 40 ------- 2 3.0 2.0 2 6
r 1.040133 3 2 ack 40 ------- 2 3.0 2.0 1 5
+ 1.040133 2 3 tcp 1540 ------- 2 2.0 3.0 3 7
- 1.040133 2 3 tcp 1540 ------- 2 2.0 3.0 3 7
+ 1.040133 2 3 tcp 1540 ------- 2 2.0 3.0 4 8
r 1.040256 3 2 ack 40 ------- 2 3.0 2.0 2 6
+ 1.040256 2 3 tcp 1540 ------- 2 2.0 3.0 5 9
+ 1.040256 2 3 tcp 1540 ------- 2 2.0 3.0 6 10
- 1.040256 2 3 tcp 1540 ------- 2 2.0 3.0 4 8
- 1.040379 2 3 tcp 1540 ------- 2 2.0 3.0 5 9
- 1.040502 2 3 tcp 1540 ------- 2 2.0 3.0 6 10
r 1.050256 2 3 tcp 1540 ------- 2 2.0 3.0 3 7
+ 1.050256 3 2 ack 40 ------- 2 3.0 2.0 3 11
- 1.050256 3 2 ack 40 ------- 2 3.0 2.0 3 11
r 1.050379 2 3 tcp 1540 ------- 2 2.0 3.0 4 8
+ 1.050379 3 2 ack 40 ------- 2 3.0 2.0 4 12
- 1.050379 3 2 ack 40 ------- 2 3.0 2.0 4 12
r 1.050502 2 3 tcp 1540 ------- 2 2.0 3.0 5 9
+ 1.050502 3 2 ack 40 ------- 2 3.0 2.0 5 13
- 1.050502 3 2 ack 40 ------- 2 3.0 2.0 5 13
r 1.050626 2 3 tcp 1540 ------- 2 2.0 3.0 6 10
+ 1.050626 3 2 ack 40 ------- 2 3.0 2.0 6 14
- 1.050626 3 2 ack 40 ------- 2 3.0 2.0 6 14
+ 1.060006 3 6 tcp 40 ------- 1 0.0 5.0 0 0
- 1.060006 3 6 tcp 40 ------- 1 0.0 5.0 0 0
d 1.06001 4 6 tcp 40 ------- 1 0.0 5.0 0 0
r 1.060259 3 2 ack 40 ------- 2 3.0 2.0 3 11
+ 1.060259 2 3 tcp 1540 ------- 2 2.0 3.0 7 15
- 1.060259 2 3 tcp 1540 ------- 2 2.0 3.0 7 15
+ 1.060259 2 3 tcp 1540 ------- 2 2.0 3.0 8 16
r 1.060382 3 2 ack 40 ------- 2 3.0 2.0 4 12
+ 1.060382 2 3 tcp 1540 ------- 2 2.0 3.0 9 17
+ 1.060382 2 3 tcp 1540 ------- 2 2.0 3.0 10 18
- 1.060382 2 3 tcp 1540 ------- 2 2.0 3.0 8 16
r 1.060506 3 2 ack 40 ------- 2 3.0 2.0 5 13
+ 1.060506 2 3 tcp 1540 ------- 2 2.0 3.0 11 19
+ 1.060506 2 3 tcp 1540 ------- 2 2.0 3.0 12 20
- 1.060506 2 3 tcp 1540 ------- 2 2.0 3.0 9 17
r 1.060629 3 2 ack 40 ------- 2 3.0 2.0 6 14
+ 1.060629 2 3 tcp 1540 ------- 2 2.0 3.0 13 21
+ 1.060629 2 3 tcp 1540 ------- 2 2.0 3.0 14 22
- 1.060629 2 3 tcp 1540 ------- 2 2.0 3.0 10 18
- 1.060752 2 3 tcp 1540 ------- 2 2.0 3.0 11 19
- 1.060875 2 3 tcp 1540 ------- 2 2.0 3.0 12 20
- 1.060998 2 3 tcp 1540 ------- 2 2.0 3.0 13 21
- 1.061122 2 3 tcp 1540 ------- 2 2.0 3.0 14 22
r 1.070382 2 3 tcp 1540 ------- 2 2.0 3.0 7 15
+ 1.070382 3 2 ack 40 ------- 2 3.0 2.0 7 23
- 1.070382 3 2 ack 40 ------- 2 3.0 2.0 7 23
r 1.070506 2 3 tcp 1540 ------- 2 2.0 3.0 8 16
+ 1.070506 3 2 ack 40 ------- 2 3.0 2.0 8 24
- 1.070506 3 2 ack 40 ------- 2 3.0 2.0 8 24
r 1.070629 2 3 tcp 1540 ------- 2 2.0 3.0 9 17
+ 1.070629 3 2 ack 40 ------- 2 3.0 2.0 9 25
- 1.070629 3 2 ack 40 ------- 2 3.0 2.0 9 25
r 1.070752 2 3 tcp 1540 ------- 2 2.0 3.0 10 18
+ 1.070752 3 2 ack 40 ------- 2 3.0 2.0 10 26
- 1.070752 3 2 ack 40 ------- 2 3.0 2.0 10 26
r 1.070875 2 3 tcp 1540 ------- 2 2.0 3.0 11 19
+ 1.070875 3 2 ack 40 ------- 2 3.0 2.0 11 27
- 1.070875 3 2 ack 40 ------- 2 3.0 2.0 11 27
r 1.070998 2 3 tcp 1540 ------- 2 2.0 3.0 12 20
+ 1.070998 3 2 ack 40 ------- 2 3.0 2.0 12 28
- 1.070998 3 2 ack 40 ------- 2 3.0 2.0 12 28
r 1.071122 2 3 tcp 1540 ------- 2 2.0 3.0 13 21
+ 1.071122 3 2 ack 40 ------- 2 3.0 2.0 13 29
- 1.071122 3 2 ack 40 ------- 2 3.0 2.0 13 29
r 1.071245 2 3 tcp 1540 ------- 2 2.0 3.0 14 22
+ 1.071245 3 2 ack 40 ------- 2 3.0 2.0 14 30
- 1.071245 3 2 ack 40 ------- 2 3.0 2.0 14 30
r 1.080386 3 2 ack 40 ------- 2 3.0 2.0 7 23
+ 1.080386 2 3 tcp 1540 ------- 2 2.0 3.0 15 31
- 1.080386 2 3 tcp 1540 ------- 2 2.0 3.0 15 31
+ 1.080386 2 3 tcp 1540 ------- 2 2.0 3.0 16 32
r 1.080509 3 2 ack 40 ------- 2 3.0 2.0 8 24
+ 1.080509 2 3 tcp 1540 ------- 2 2.0 3.0 17 33
+ 1.080509 2 3 tcp 1540 ------- 2 2.0 3.0 18 34
- 1.080509 2 3 tcp 1540 ------- 2 2.0 3.0 16 32
r 1.080632 3 2 ack 40 ------- 2 3.0 2.0 9 25
+ 1.080632 2 3 tcp 1540 ------- 2 2.0 3.0 19 35
+ 1.080632 2 3 tcp 1540 ------- 2 2.0 3.0 20 36
- 1.080632 2 3 tcp 1540 ------- 2 2.0 3.0 17 33
r 1.080755 3 2 ack 40 ------- 2 3.0 2.0 10 26
+ 1.080755 2 3 tcp 1540 ------- 2 2.0 3.0 21 37
+ 1.080755 2 3 tcp 1540 ------- 2 2.0 3.0 22 38
- 1.080755 2 3 tcp 1540 ------- 2 2.0 3.0 18 34
r 1.080878 3 2 ack 40 ------- 2 3.0 2.0 11 27
+ 1.080878 2 3 tcp 1540 ------- 2 2.0 3.0 23 39
+ 1.080878 2 3 tcp 1540 ------- 2 2.0 3.0 24 40
- 1.080878 2 3 tcp 1540 ------- 2 2.0 3.0 19 35
r 1.081002 3 2 ack 40 ------- 2 3.0 2.0 12 28
+ 1.081002 2 3 tcp 1540 ------- 2 2.0 3.0 25 41
+ 1.081002 2 3 tcp 1540 ------- 2 2.0 3.0 26 42
- 1.081002 2 3 tcp 1540 ------- 2 2.0 3.0 20 36
r 1.081125 3 2 ack 40 ------- 2 3.0 2.0 13 29
+ 1.081125 2 3 tcp 1540 ------- 2 2.0 3.0 27 43
+ 1.081125 2 3 tcp 1540 ------- 2 2.0 3.0 28 44
- 1.081125 2 3 tcp 1540 ------- 2 2.0 3.0 21 37
r 1.081248 3 2 ack 40 ------- 2 3.0 2.0 14 30
+ 1.081248 2 3 tcp 1540 ------- 2 2.0 3.0 29 45
+ 1.081248 2 3 tcp 1540 ------- 2 2.0 3.0 30 46
- 1.081248 2 3 tcp 1540 ------- 2 2.0 3.0 22 38
- 1.081371 2 3 tcp 1540 ------- 2 2.0 3.0 23 39
- 1.081494 2 3 tcp 1540 ------- 2 2.0 3.0 24 40
- 1.081618 2 3 tcp 1540 ------- 2 2.0 3.0 25 41
- 1.081741 2 3 tcp 1540 ------- 2 2.0 3.0 26 42
- 1.081864 2 3 tcp 1540 ------- 2 2.0 3.0 27 43
- 1.081987 2 3 tcp 1540 ------- 2 2.0 3.0 28 44
- 1.08211 2 3 tcp 1540 ------- 2 2.0 3.0 29 45
- 1.082234 2 3 tcp 1540 ------- 2 2.0 3.0 30 46
r 1.090509 2 3 tcp 1540 ------- 2 2.0 3.0 15 31
+ 1.090509 3 2 ack 40 ------- 2 3.0 2.0 15 47
- 1.090509 3 2 ack 40 ------- 2 3.0 2.0 15 47
r 1.090632 2 3 tcp 1540 ------- 2 2.0 3.0 16 32
+ 1.090632 3 2 ack 40 ------- 2 3.0 2.0 16 48
- 1.090632 3 2 ack 40 ------- 2 3.0 2.0 16 48
r 1.090755 2 3 tcp 1540 ------- 2 2.0 3.0 17 33
+ 1.090755 3 2 ack 40 ------- 2 3.0 2.0 17 49
- 1.090755 3 2 ack 40 ------- 2 3.0 2.0 17 49
r 1.090878 2 3 tcp 1540 ------- 2 2.0 3.0 18 34
+ 1.090878 3 2 ack 40 ------- 2 3.0 2.0 18 50
- 1.090878 3 2 ack 40 ------- 2 3.0 2.0 18 50
r 1.091002 2 3 tcp 1540 ------- 2 2.0 3.0 19 35
+ 1.091002 3 2 ack 40 ------- 2 3.0 2.0 19 51
- 1.091002 3 2 ack 40 ------- 2 3.0 2.0 19 51
r 1.091125 2 3 tcp 1540 ------- 2 2.0 3.0 20 36
+ 1.091125 3 2 ack 40 ------- 2 3.0 2.0 20 52
- 1.091125 3 2 ack 40 ------- 2 3.0 2.0 20 52
r 1.091248 2 3 tcp 1540 ------- 2 2.0 3.0 21 37
+ 1.091248 3 2 ack 40 ------- 2 3.0 2.0 21 53
- 1.091248 3 2 ack 40 ------- 2 3.0 2.0 21 53
r 1.091371 2 3 tcp 1540 ------- 2 2.0 3.0 22 38
+ 1.091371 3 2 ack 40 ------- 2 3.0 2.0 22 54
- 1.091371 3 2 ack 40 ------- 2 3.0 2.0 22 54
r 1.091494 2 3 tcp 1540 ------- 2 2.0 3.0 23 39
+ 1.091494 3 2 ack 40 ------- 2 3.0 2.0 23 55
- 1.091494 3 2 ack 40 ------- 2 3.0 2.0 23 55
r 1.091618 2 3 tcp 1540 ------- 2 2.0 3.0 24 40
+ 1.091618 3 2 ack 40 ------- 2 3.0 2.0 24 56
- 1.091618 3 2 ack 40 ------- 2 3.0 2.0 24 56
r 1.091741 2 3 tcp 1540 ------- 2 2.0 3.0 25 41
+ 1.091741 3 2 ack 40 ------- 2 3.0 2.0 25 57
- 1.091741 3 2 ack 40 ------- 2 3.0 2.0 25 57
r 1.091864 2 3 tcp 1540 ------- 2 2.0 3.0 26 42
+ 1.091864 3 2 ack 40 ------- 2 3.0 2.0 26 58
- 1.091864 3 2 ack 40 ------- 2 3.0 2.0 26 58
r 1.091987 2 3 tcp 1540 ------- 2 2.0 3.0 27 43
+ 1.091987 3 2 ack 40 ------- 2 3.0 2.0 27 59
- 1.091987 3 2 ack 40 ------- 2 3.0 2.0 27 59
r 1.09211 2 3 tcp 1540 ------- 2 2.0 3.0 28 44
+ 1.09211 3 2 ack 40 ------- 2 3.0 2.0 28 60
- 1.09211 3 2 ack 40 ------- 2 3.0 2.0 28 60
r 1.092234 2 3 tcp 1540 ------- 2 2.0 3.0 29 45
+ 1.092234 3 2 ack 40 ------- 2 3.0 2.0 29 61
- 1.092234 3 2 ack 40 ------- 2 3.0 2.0 29 61
r 1.092357 2 3 tcp 1540 ------- 2 2.0 3.0 30 46
+ 1.092357 3 2 ack 40 ------- 2 3.0 2.0 30 62
- 1.092357 3 2 ack 40 ------- 2 3.0 2.0 30 62
r 1.10001 6 5 tcp 40 ------- 1 0.0 5.0 0 0
h 1.10001 5 6 ack 40 ------- 1 5.0 0.0 0 63
r 1.100512 3 2 ack 40 ------- 2 3.0 2.0 15 47
+ 1.100512 2 3 tcp 1540 ------- 2 2.0 3.0 31 64
- 1.100512 2 3 tcp 1540 ------- 2 2.0 3.0 31 64
+ 1.100512 2 3 tcp 1540 ------- 2 2.0 3.0 32 65
r 1.100635 3 2 ack 40 ------- 2 3.0 2.0 16 48
+ 1.100635 2 3 tcp 1540 ------- 2 2.0 3.0 33 66
+ 1.100635 2 3 tcp 1540 ------- 2 2.0 3.0 34 67
- 1.100635 2 3 tcp 1540 ------- 2 2.0 3.0 32 65
r 1.100758 3 2 ack 40 ------- 2 3.0 2.0 17 49
+ 1.100758 2 3 tcp 1540 ------- 2 2.0 3.0 35 68
+ 1.100758 2 3 tcp 1540 ------- 2 2.0 3.0 36 69
- 1.100758 2 3 tcp 1540 ------- 2 2.0 3.0 33 66
r 1.100882 3 2 ack 40 ------- 2 3.0 2.0 18 50
+ 1.100882 2 3 tcp 1540 ------- 2 2.0 3.0 37 70
+ 1.100882 2 3 tcp 1540 ------- 2 2.0 3.0 38 71
- 1.100882 2 3 tcp 1540 ------- 2 2.0 3.0 34 67
r 1.101005 3 2 ack 40 ------- 2 3.0 2.0 19 51
+ 1.101005 2 3 tcp 1540 ------- 2 2.0 3.0 39 72
- 1.101005 2 3 tcp 1540 ------- 2 2.0 3.0 35 68
r 1.101128 3 2 ack 40 ------- 2 3.0 2.0 20 52
+ 1.101128 2 3 tcp 1540 ------- 2 2.0 3.0 40 73
- 1.101128 2 3 tcp 1540 ------- 2 2.0 3.0 36 69
r 1.101251 3 2 ack 40 ------- 2 3.0 2.0 21 53
+ 1.101251 2 3 tcp 1540 ------- 2 2.0 3.0 41 74
- 1.101251 2 3 tcp 1540 ------- 2 2.0 3.0 37 70
r 1.101374 3 2 ack 40 ------- 2 3.0 2.0 22 54
+ 1.101374 2 3 tcp 1540 ------- 2 2.0 3.0 42 75
- 1.101374 2 3 tcp 1540 ------- 2 2.0 3.0 38 71
r 1.101498 3 2 ack 40 ------- 2 3.0 2.0 23 55
+ 1.101498 2 3 tcp 1540 ------- 2 2.0 3.0 43 76
- 1.101498 2 3 tcp 1540 ------- 2 2.0 3.0 39 72
r 1.101621 3 2 ack 40 ------- 2 3.0 2.0 24 56
+ 1.101621 2 3 tcp 1540 ------- 2 2.0 3.0 44 77
- 1.101621 2 3 tcp 1540 ------- 2 2.0 3.0 40 73
r 1.101744 3 2 ack 40 ------- 2 3.0 2.0 25 57
+ 1.101744 2 3 tcp 1540 ------- 2 2.0 3.0 45 78
- 1.101744 2 3 tcp 1540 ------- 2 2.0 3.0 41 74
r 1.101867 3 2 ack 40 ------- 2 3.0 2.0 26 58
+ 1.101867 2 3 tcp 1540 ------- 2 2.0 3.0 46 79
- 1.101867 2 3 tcp 1540 ------- 2 2.0 3.0 42 75
r 1.10199 3 2 ack 40 ------- 2 3.0 2.0 27 59
+ 1.10199 2 3 tcp 1540 ------- 2 2.0 3.0 47 80
- 1.10199 2 3 tcp 1540 ------- 2 2.0 3.0 43 76
r 1.102114 3 2 ack 40 ------- 2 3.0 2.0 28 60
+ 1.102114 2 3 tcp 1540 ------- 2 2.0 3.0 48 81
- 1.102114 2 3 tcp 1540 ------- 2 2.0 3.0 44 77
r 1.102237 3 2 ack 40 ------- 2 3.0 2.0 29 61
+ 1.102237 2 3 tcp 1540 ------- 2 2.0 3.0 49 82
- 1.102237 2 3 tcp 1540 ------- 2 2.0 3.0 45 78
r 1.10236 3 2 ack 40 ------- 2 3.0 2.0 30 62
+ 1.10236 2 3 tcp 1540 ------- 2 2.0 3.0 50 83
- 1.10236 2 3 tcp 1540 ------- 2 2.0 3.0 46 79
- 1.102483 2 3 tcp 1540 ------- 2 2.0 3.0 47 80
- 1.102606 2 3 tcp 1540 ------- 2 2.0 3.0 48 81
- 1.10273 2 3 tcp 1540 ------- 2 2.0 3.0 49 82
- 1.102853 2 3 tcp 1540 ------- 2 2.0 3.0 50 83
r 1.110635 2 3 tcp 1540 ------- 2 2.0 3.0 31 64
+ 1.110635 3 2 ack 40 ------- 2 3.0 2.0 31 84
- 1.110635 3 2 ack 40 ------- 2 3.0 2.0 31 84
r 1.110758 2 3 tcp 1540 ------- 2 2.0 3.0 32 65
+ 1.110758 3 2 ack 40 ------- 2 3.0 2.0 32 85
- 1.110758 3 2 ack 40 ------- 2 3.0 2.0 32 85
r 1.110882 2 3 tcp 1540 ------- 2 2.0 3.0 33 66
+ 1.110882 3 2 ack 40 ------- 2 3.0 2.0 33 86
- 1.110882 3 2 ack 40 ------- 2 3.0 2.0 33 86
r 1.111005 2 3 tcp 1540 ------- 2 2.0 3.0 34 67
+ 1.111005 3 2 ack 40 ------- 2 3.0 2.0 34 87
- 1.111005 3 2 ack 40 ------- 2 3.0 2.0 34 87
r 1.111128 2 3 tcp 1540 ------- 2 2.0 3.0 35 68
+ 1.111128 3 2 ack 40 ------- 2 3.0 2.0 35 88
- 1.111128 3 2 ack 40 ------- 2 3.0 2.0 35 88
r 1.111251 2 3 tcp 1540 ------- 2 2.0 3.0 36 69
+ 1.111251 3 2 ack 40 ------- 2 3.0 2.0 36 89
- 1.111251 3 2 ack 40 ------- 2 3.0 2.0 36 89
r 1.111374 2 3 tcp 1540 ------- 2 2.0 3.0 37 70
+ 1.111374 3 2 ack 40 ------- 2 3.0 2.0 37 90
- 1.111374 3 2 ack 40 ------- 2 3.0 2.0 37 90
r 1.111498 2 3 tcp 1540 ------- 2 2.0 3.0 38 71
+ 1.111498 3 2 ack 40 ------- 2 3.0 2.0 38 91
- 1.111498 3 2 ack 40 ------- 2 3.0 2.0 38 91
r 1.111621 2 3 tcp 1540 ------- 2 2.0 3.0 39 72
+ 1.111621 3 2 ack 40 ------- 2 3.0 2.0 39 92
- 1.111621 3 2 ack 40 ------- 2 3.0 2.0 39 92
r 1.111744 2 3 tcp 1540 ------- 2 2.0 3.0 40 73
+ 1.111744 3 2 ack 40 ------- 2 3.0 2.0 40 93
- 1.111744 3 2 ack 40 ------- 2 3.0 2.0 40 93
r 1.111867 2 3 tcp 1540 ------- 2 2.0 3.0 41 74
+ 1.111867 3 2 ack 40 ------- 2 3.0 2.0 41 94
- 1.111867 3 2 ack 40 ------- 2 3.0 2.0 41 94
r 1.11199 2 3 tcp 1540 ------- 2 2.0 3.0 42 75
+ 1.11199 3 2 ack 40 ------- 2 3.0 2.0 42 95
- 1.11199 3 2 ack 40 ------- 2 3.0 2.0 42 95
r 1.112114 2 3 tcp 1540 ------- 2 2.0 3.0 43 76
+ 1.112114 3 2 ack 40 ------- 2 3.0 2.0 43 96
- 1.112114 3 2 ack 40 ------- 2 3.0 2.0 43 96
r 1.112237 2 3 tcp 1540 ------- 2 2.0 3.0 44 77
+ 1.112237 3 2 ack 40 ------- 2 3.0 2.0 44 97
- 1.112237 3 2 ack 40 ------- 2 3.0 2.0 44 97
r 1.11236 2 3 tcp 1540 ------- 2 2.0 3.0 45 78
+ 1.11236 3 2 ack 40 ------- 2 3.0 2.0 45 98
- 1.11236 3 2 ack 40 ------- 2 3.0 2.0 45 98
r 1.112483 2 3 tcp 1540 ------- 2 2.0 3.0 46 79
+ 1.112483 3 2 ack 40 ------- 2 3.0 2.0 46 99
- 1.112483 3 2 ack 40 ------- 2 3.0 2.0 46 99
r 1.112606 2 3 tcp 1540 ------- 2 2.0 3.0 47 80
+ 1.112606 3 2 ack 40 ------- 2 3.0 2.0 47 100
- 1.112606 3 2 ack 40 ------- 2 3.0 2.0 47 100
r 1.11273 2 3 tcp 1540 ------- 2 2.0 3.0 48 81
+ 1.11273 3 2 ack 40 ------- 2 3.0 2.0 48 101
- 1.11273 3 2 ack 40 ------- 2 3.0 2.0 48 101
r 1.112853 2 3 tcp 1540 ------- 2 2.0 3.0 49 82
+ 1.112853 3 2 ack 40 ------- 2 3.0 2.0 49 102
- 1.112853 3 2 ack 40 ------- 2 3.0 2.0 49 102
r 1.112976 2 3 tcp 1540 ------- 2 2.0 3.0 50 83
+ 1.112976 3 2 ack 40 ------- 2 3.0 2.0 50 103
- 1.112976 3 2 ack 40 ------- 2 3.0 2.0 50 103
r 1.120638 3 2 ack 40 ------- 2 3.0 2.0 31 84
+ 1.120638 2 3 tcp 1540 ------- 2 2.0 3.0 51 104
- 1.120638 2 3 tcp 1540 ------- 2 2.0 3.0 51 104
r 1.120762 3 2 ack 40 ------- 2 3.0 2.0 32 85
+ 1.120762 2 3 tcp 1540 ------- 2 2.0 3.0 52 105
- 1.120762 2 3 tcp 1540 ------- 2 2.0 3.0 52 105
r 1.120885 3 2 ack 40 ------- 2 3.0 2.0 33 86
+ 1.120885 2 3 tcp 1540 ------- 2 2.0 3.0 53 106
- 1.120885 2 3 tcp 1540 ------- 2 2.0 3.0 53 106
r 1.121008 3 2 ack 40 ------- 2 3.0 2.0 34 87
+ 1.121008 2 3 tcp 1540 ------- 2 2.0 3.0 54 107
- 1.121008 2 3 tcp 1540 ------- 2 2.0 3.0 54 107
r 1.121131 3 2 ack 40 ------- 2 3.0 2.0 35 88
+ 1.121131 2 3 tcp 1540 ------- 2 2.0 3.0 55 108
- 1.121131 2 3 tcp 1540 ------- 2 2.0 3.0 55 108
r 1.121254 3 2 ack 40 ------- 2 3.0 2.0 36 89
+ 1.121254 2 3 tcp 1540 ------- 2 2.0 3.0 56 109
- 1.121254 2 3 tcp 1540 ------- 2 2.0 3.0 56 109
r 1.121378 3 2 ack 40 ------- 2 3.0 2.0 37 90
+ 1.121378 2 3 tcp 1540 ------- 2 2.0 3.0 57 110
- 1.121378 2 3 tcp 1540 ------- 2 2.0 3.0 57 110
r 1.121501 3 2 ack 40 ------- 2 3.0 2.0 38 91
+ 1.121501 2 3 tcp 1540 ------- 2 2.0 3.0 58 111
- 1.121501 2 3 tcp 1540 ------- 2 2.0 3.0 58 111
r 1.121624 3 2 ack 40 ------- 2 3.0 2.0 39 92
+ 1.121624 2 3 tcp 1540 ------- 2 2.0 3.0 59 112
- 1.121624 2 3 tcp 1540 ------- 2 2.0 3.0 59 112
r 1.121747 3 2 ack 40 ------- 2 3.0 2.0 40 93
+ 1.121747 2 3 tcp 1540 ------- 2 2.0 3.0 60 113
- 1.121747 2 3 tcp 1540 ------- 2 2.0 3.0 60 113
r 1.12187 3 2 ack 40 ------- 2 3.0 2.0 41 94
+ 1.12187 2 3 tcp 1540 ------- 2 2.0 3.0 61 114
- 1.12187 2 3 tcp 1540 ------- 2 2.0 3.0 61 114
r 1.121994 3 2 ack 40 ------- 2 3.0 2.0 42 95
+ 1.121994 2 3 tcp 1540 ------- 2 2.0 3.0 62 115
- 1.121994 2 3 tcp 1540 ------- 2 2.0 3.0 62 115
r 1.122117 3 2 ack 40 ------- 2 3.0 2.0 43 96
+ 1.122117 2 3 tcp 1540 ------- 2 2.0 3.0 63 116
- 1.122117 2 3 tcp 1540 ------- 2 2.0 3.0 63 116
r 1.12224 3 2 ack 40 ------- 2 3.0 2.0 44 97
+ 1.12224 2 3 tcp 1540 ------- 2 2.0 3.0 64 117
- 1.12224 2 3 tcp 1540 ------- 2 2.0 3.0 64 117
r 1.122363 3 2 ack 40 ------- 2 3.0 2.0 45 98
+ 1.122363 2 3 tcp 1540 ------- 2 2.0 3.0 65 118
- 1.122363 2 3 tcp 1540 ------- 2 2.0 3.0 65 118
r 1.122486 3 2 ack 40 ------- 2 3.0 2.0 46 99
+ 1.122486 2 3 tcp 1540 ------- 2 2.0 3.0 66 119
- 1.122486 2 3 tcp 1540 ------- 2 2.0 3.0 66 119
r 1.12261 3 2 ack 40 ------- 2 3.0 2.0 47 100
+ 1.12261 2 3 tcp 1540 ------- 2 2.0 3.0 67 120
- 1.12261 2 3 tcp 1540 ------- 2 2.0 3.0 67 120
r 1.122733 3 2 ack 40 ------- 2 3.0 2.0 48 101
+ 1.122733 2 3 tcp 1540 ------- 2 2.0 3.0 68 121
- 1.122733 2 3 tcp 1540 ------- 2 2.0 3.0 68 121
r 1.122856 3 2 ack 40 ------- 2 3.0 2.0 49 102
+ 1.122856 2 3 tcp 1540 ------- 2 2.0 3.0 69 122
- 1.122856 2 3 tcp 1540 ------- 2 2.0 3.0 69 122
r 1.122979 3 2 ack 40 ------- 2 3.0 2.0 50 103
+ 1.122979 2 3 tcp 1540 ------- 2 2.0 3.0 70 123
- 1.122979 2 3 tcp 1540 ------- 2 2.0 3.0 70 123
r 1.130762 2 3 tcp 1540 ------- 2 2.0 3.0 51 104
+ 1.130762 3 2 ack 40 ------- 2 3.0 2.0 51 124
- 1.130762 3 2 ack 40 ------- 2 3.0 2.0 51 124
r 1.130885 2 3 tcp 1540 ------- 2 2.0 3.0 52 105
+ 1.130885 3 2 ack 40 ------- 2 3.0 2.0 52 125
- 1.130885 3 2 ack 40 ------- 2 3.0 2.0 52 125
r 1.131008 2 3 tcp 1540 ------- 2 2.0 3.0 53 106
+ 1.131008 3 2 ack 40 ------- 2 3.0 2.0 53 126
- 1.131008 3 2 ack 40 ------- 2 3.0 2.0 53 126
r 1.131131 2 3 tcp 1540 ------- 2 2.0 3.0 54 107
+ 1.131131 3 2 ack 40 ------- 2 3.0 2.0 54 127
- 1.131131 3 2 ack 40 ------- 2 3.0 2.0 54 127
r 1.131254 2 3 tcp 1540 ------- 2 2.0 3.0 55 108
+ 1.131254 3 2 ack 40 ------- 2 3.0 2.0 55 128
- 1.131254 3 2 ack 40 ------- 2 3.0 2.0 55 128
r 1.131378 2 3 tcp 1540 ------- 2 2.0 3.0 56 109
+ 1.131378 3 2 ack 40 ------- 2 3.0 2.0 56 129
- 1.131378 3 2 ack 40 ------- 2 3.0 2.0 56 129
r 1.131501 2 3 tcp 1540 ------- 2 2.0 3.0 57 110
+ 1.131501 3 2 ack 40 ------- 2 3.0 2.0 57 130
- 1.131501 3 2 ack 40 ------- 2 3.0 2.0 57 130
r 1.131624 2 3 tcp 1540 ------- 2 2.0 3.0 58 111
+ 1.131624 3 2 ack 40 ------- 2 3.0 2.0 58 131
- 1.131624 3 2 ack 40 ------- 2 3.0 2.0 58 131
r 1.131747 2 3 tcp 1540 ------- 2 2.0 3.0 59 112
+ 1.131747 3 2 ack 40 ------- 2 3.0 2.0 59 132
- 1.131747 3 2 ack 40 ------- 2 3.0 2.0 59 132
r 1.13187 2 3 tcp 1540 ------- 2 2.0 3.0 60 113
+ 1.13187 3 2 ack 40 ------- 2 3.0 2.0 60 133
- 1.13187 3 2 ack 40 ------- 2 3.0 2.0 60 133
r 1.131994 2 3 tcp 1540 ------- 2 2.0 3.0 61 114
+ 1.131994 3 2 ack 40 ------- 2 3.0 2.0 61 134
- 1.131994 3 2 ack 40 ------- 2 3.0 2.0 61 134
r 1.132117 2 3 tcp 1540 ------- 2 2.0 3.0 62 115
+ 1.132117 3 2 ack 40 ------- 2 3.0 2.0 62 135
- 1.132117 3 2 ack 40 ------- 2 3.0 2.0 62 135
r 1.13224 2 3 tcp 1540 ------- 2 2.0 3.0 63 116
+ 1.13224 3 2 ack 40 ------- 2 3.0 2.0 63 136
- 1.13224 3 2 ack 40 ------- 2 3.0 2.0 63 136
r 1.132363 2 3 tcp 1540 ------- 2 2.0 3.0 64 117
+ 1.132363 3 2 ack 40 ------- 2 3.0 2.0 64 137
- 1.132363 3 2 ack 40 ------- 2 3.0 2.0 64 137
r 1.132486 2 3 tcp 1540 ------- 2 2.0 3.0 65 118
+ 1.132486 3 2 ack 40 ------- 2 3.0 2.0 65 138
- 1.132486 3 2 ack 40 ------- 2 3.0 2.0 65 138
r 1.13261 2 3 tcp 1540 ------- 2 2.0 3.0 66 119
+ 1.13261 3 2 ack 40 ------- 2 3.0 2.0 66 139
- 1.13261 3 2 ack 40 ------- 2 3.0 2.0 66 139
r 1.132733 2 3 tcp 1540 ------- 2 2.0 3.0 67 120
+ 1.132733 3 2 ack 40 ------- 2 3.0 2.0 67 140
- 1.132733 3 2 ack 40 ------- 2 3.0 2.0 67 140
r 1.132856 2 3 tcp 1540 ------- 2 2.0 3.0 68 121
+ 1.132856 3 2 ack 40 ------- 2 3.0 2.0 68 141
- 1.132856 3 2 ack 40 ------- 2 3.0 2.0 68 141
r 1.132979 2 3 tcp 1540 ------- 2 2.0 3.0 69 122
+ 1.132979 3 2 ack 40 ------- 2 3.0 2.0 69 142
- 1.132979 3 2 ack 40 ------- 2 3.0 2.0 69 142
r 1.133102 2 3 tcp 1540 ------- 2 2.0 3.0 70 123
+ 1.133102 3 2 ack 40 ------- 2 3.0 2.0 70 143
- 1.133102 3 2 ack 40 ------- 2 3.0 2.0 70 143
+ 1.14001 5 6 ack 40 ------- 1 5.0 0.0 0 63
- 1.14001 5 6 ack 40 ------- 1 5.0 0.0 0 63
d 1.140014 4 6 ack 40 ------- 1 5.0 0.0 0 63
r 1.140765 3 2 ack 40 ------- 2 3.0 2.0 51 124
+ 1.140765 2 3 tcp 1540 ------- 2 2.0 3.0 71 144
- 1.140765 2 3 tcp 1540 ------- 2 2.0 3.0 71 144
r 1.140888 3 2 ack 40 ------- 2 3.0 2.0 52 125
+ 1.140888 2 3 tcp 1540 ------- 2 2.0 3.0 72 145
- 1.140888 2 3 tcp 1540 ------- 2 2.0 3.0 72 145
r 1.141011 3 2 ack 40 ------- 2 3.0 2.0 53 126
+ 1.141011 2 3 tcp 1540 ------- 2 2.0 3.0 73 146
- 1.141011 2 3 tcp 1540 ------- 2 2.0 3.0 73 146
r 1.141134 3 2 ack 40 ------- 2 3.0 2.0 54 127
+ 1.141134 2 3 tcp 1540 ------- 2 2.0 3.0 74 147
- 1.141134 2 3 tcp 1540 ------- 2 2.0 3.0 74 147
r 1.141258 3 2 ack 40 ------- 2 3.0 2.0 55 128
+ 1.141258 2 3 tcp 1540 ------- 2 2.0 3.0 75 148
- 1.141258 2 3 tcp 1540 ------- 2 2.0 3.0 75 148
r 1.141381 3 2 ack 40 ------- 2 3.0 2.0 56 129
+ 1.141381 2 3 tcp 1540 ------- 2 2.0 3.0 76 149
- 1.141381 2 3 tcp 1540 ------- 2 2.0 3.0 76 149
r 1.141504 3 2 ack 40 ------- 2 3.0 2.0 57 130
+ 1.141504 2 3 tcp 1540 ------- 2 2.0 3.0 77 150
- 1.141504 2 3 tcp 1540 ------- 2 2.0 3.0 77 150
r 1.141627 3 2 ack 40 ------- 2 3.0 2.0 58 131
+ 1.141627 2 3 tcp 1540 ------- 2 2.0 3.0 78 151
- 1.141627 2 3 tcp 1540 ------- 2 2.0 3.0 78 151
r 1.14175 3 2 ack 40 ------- 2 3.0 2.0 59 132
+ 1.14175 2 3 tcp 1540 ------- 2 2.0 3.0 79 152
- 1.14175 2 3 tcp 1540 ------- 2 2.0 3.0 79 152
r 1.141874 3 2 ack 40 ------- 2 3.0 2.0 60 133
+ 1.141874 2 3 tcp 1540 ------- 2 2.0 3.0 80 153
- 1.141874 2 3 tcp 1540 ------- 2 2.0 3.0 80 153
r 1.141997 3 2 ack 40 ------- 2 3.0 2.0 61 134
+ 1.141997 2 3 tcp 1540 ------- 2 2.0 3.0 81 154
- 1.141997 2 3 tcp 1540 ------- 2 2.0 3.0 81 154
r 1.14212 3 2 ack 40 ------- 2 3.0 2.0 62 135
+ 1.14212 2 3 tcp 1540 ------- 2 2.0 3.0 82 155
- 1.14212 2 3 tcp 1540 ------- 2 2.0 3.0 82 155
r 1.142243 3 2 ack 40 ------- 2 3.0 2.0 63 136
+ 1.142243 2 3 tcp 1540 ------- 2 2.0 3.0 83 156
- 1.142243 2 3 tcp 1540 ------- 2 2.0 3.0 83 156
r 1.142366 3 2 ack 40 ------- 2 3.0 2.0 64 137
+ 1.142366 2 3 tcp 1540 ------- 2 2.0 3.0 84 157
- 1.142366 2 3 tcp 1540 ------- 2 2.0 3.0 84 157
r 1.14249 3 2 ack 40 ------- 2 3.0 2.0 65 138
+ 1.14249 2 3 tcp 1540 ------- 2 2.0 3.0 85 158
- 1.14249 2 3 tcp 1540 ------- 2 2.0 3.0 85 158
r 1.142613 3 2 ack 40 ------- 2 3.0 2.0 66 139
+ 1.142613 2 3 tcp 1540 ------- 2 2.0 3.0 86 159
- 1.142613 2 3 tcp 1540 ------- 2 2.0 3.0 86 159
r 1.142736 3 2 ack 40 ------- 2 3.0 2.0 67 140
+ 1.142736 2 3 tcp 1540 ------- 2 2.0 3.0 87 160
- 1.142736 2 3 tcp 1540 ------- 2 2.0 3.0 87 160
r 1.142859 3 2 ack 40 ------- 2 3.0 2.0 68 141
+ 1.142859 2 3 tcp 1540 ------- 2 2.0 3.0 88 161
- 1.142859 2 3 tcp 1540 ------- 2 2.0 3.0 88 161
r 1.142982 3 2 ack 40 ------- 2 3.0 2.0 69 142
+ 1.142982 2 3 tcp 1540 ------- 2 2.0 3.0 89 162
- 1.142982 2 3 tcp 1540 ------- 2 2.0 3.0 89 162
r 1.143106 3 2 ack 40 ------- 2 3.0 2.0 70 143
+ 1.143106 2 3 tcp 1540 ------- 2 2.0 3.0 90 163
- 1.143106 2 3 tcp 1540 ------- 2 2.0 3.0 90 163
r 1.150888 2 3 tcp 1540 ------- 2 2.0 3.0 71 144
+ 1.150888 3 2 ack 40 ------- 2 3.0 2.0 71 164
- 1.150888 3 2 ack 40 ------- 2 3.0 2.0 71 164
r 1.151011 2 3 tcp 1540 ------- 2 2.0 3.0 72 145
+ 1.151011 3 2 ack 40 ------- 2 3.0 2.0 72 165
- 1.151011 3 2 ack 40 ------- 2 3.0 2.0 72 165
r 1.151134 2 3 tcp 1540 ------- 2 2.0 3.0 73 146
+ 1.151134 3 2 ack 40 ------- 2 3.0 2.0 73 166
- 1.151134 3 2 ack 40 ------- 2 3.0 2.0 73 166
r 1.151258 2 3 tcp 1540 ------- 2 2.0 3.0 74 147
+ 1.151258 3 2 ack 40 ------- 2 3.0 2.0 74 167
- 1.151258 3 2 ack 40 ------- 2 3.0 2.0 74 167
r 1.151381 2 3 tcp 1540 ------- 2 2.0 3.0 75 148
+ 1.151381 3 2 ack 40 ------- 2 3.0 2.0 75 168
- 1.151381 3 2 ack 40 ------- 2 3.0 2.0 75 168
r 1.151504 2 3 tcp 1540 ------- 2 2.0 3.0 76 149
+ 1.151504 3 2 ack 40 ------- 2 3.0 2.0 76 169
- 1.151504 3 2 ack 40 ------- 2 3.0 2.0 76 169
r 1.151627 2 3 tcp 1540 ------- 2 2.0 3.0 77 150
+ 1.151627 3 2 ack 40 ------- 2 3.0 2.0 77 170
- 1.151627 3 2 ack 40 ------- 2 3.0 2.0 77 170
r 1.15175 2 3 tcp 1540 ------- 2 2.0 3.0 78 151
+ 1.15175 3 2 ack 40 ------- 2 3.0 2.0 78 171
- 1.15175 3 2 ack 40 ------- 2 3.0 2.0 78 171
r 1.151874 2 3 tcp 1540 ------- 2 2.0 3.0 79 152
+ 1.151874 3 2 ack 40 ------- 2 3.0 2.0 79 172
- 1.151874 3 2 ack 40 ------- 2 3.0 2.0 79 172
r 1.151997 2 3 tcp 1540 ------- 2 2.0 3.0 80 153
+ 1.151997 3 2 ack 40 ------- 2 3.0 2.0 80 173
- 1.151997 3 2 ack 40 ------- 2 3.0 2.0 80 173
r 1.15212 2 3 tcp 1540 ------- 2 2.0 3.0 81 154
+ 1.15212 3 2 ack 40 ------- 2 3.0 2.0 81 174
- 1.15212 3 2 ack 40 ------- 2 3.0 2.0 81 174
r 1.152243 2 3 tcp 1540 ------- 2 2.0 3.0 82 155
+ 1.152243 3 2 ack 40 ------- 2 3.0 2.0 82 175
- 1.152243 3 2 ack 40 ------- 2 3.0 2.0 82 175
r 1.152366 2 3 tcp 1540 ------- 2 2.0 3.0 83 156
+ 1.152366 3 2 ack 40 ------- 2 3.0 2.0 83 176
- 1.152366 3 2 ack 40 ------- 2 3.0 2.0 83 176
r 1.15249 2 3 tcp 1540 ------- 2 2.0 3.0 84 157
+ 1.15249 3 2 ack 40 ------- 2 3.0 2.0 84 177
- 1.15249 3 2 ack 40 ------- 2 3.0 2.0 84 177
r 1.152613 2 3 tcp 1540 ------- 2 2.0 3.0 85 158
+ 1.152613 3 2 ack 40 ------- 2 3.0 2.0 85 178
- 1.152613 3 2 ack 40 ------- 2 3.0 2.0 85 178
r 1.152736 2 3 tcp 1540 ------- 2 2.0 3.0 86 159
+ 1.152736 3 2 ack 40 ------- 2 3.0 2.0 86 179
- 1.152736 3 2 ack 40 ------- 2 3.0 2.0 86 179
r 1.152859 2 3 tcp 1540 ------- 2 2.0 3.0 87 160
+ 1.152859 3 2 ack 40 ------- 2 3.0 2.0 87 180
- 1.152859 3 2 ack 40 ------- 2 3.0 2.0 87 180
r 1.152982 2 3 tcp 1540 ------- 2 2.0 3.0 88 161
+ 1.152982 3 2 ack 40 ------- 2 3.0 2.0 88 181
- 1.152982 3 2 ack 40 ------- 2 3.0 2.0 88 181
r 1.153106 2 3 tcp 1540 ------- 2 2.0 3.0 89 162
+ 1.153106 3 2 ack 40 ------- 2 3.0 2.0 89 182
- 1.153106 3 2 ack 40 ------- 2 3.0 2.0 89 182
r 1.153229 2 3 tcp 1540 ------- 2 2.0 3.0 90 163
+ 1.153229 3 2 ack 40 ------- 2 3.0 2.0 90 183
- 1.153229 3 2 ack 40 ------- 2 3.0 2.0 90 183
r 1.160891 3 2 ack 40 ------- 2 3.0 2.0 71 164
+ 1.160891 2 3 tcp 1540 ------- 2 2.0 3.0 91 184
- 1.160891 2 3 tcp 1540 ------- 2 2.0 3.0 91 184
r 1.161014 3 2 ack 40 ------- 2 3.0 2.0 72 165
+ 1.161014 2 3 tcp 1540 ------- 2 2.0 3.0 92 185
- 1.161014 2 3 tcp 1540 ------- 2 2.0 3.0 92 185
r 1.161138 3 2 ack 40 ------- 2 3.0 2.0 73 166
+ 1.161138 2 3 tcp 1540 ------- 2 2.0 3.0 93 186
- 1.161138 2 3 tcp 1540 ------- 2 2.0 3.0 93 186
r 1.161261 3 2 ack 40 ------- 2 3.0 2.0 74 167
+ 1.161261 2 3 tcp 1540 ------- 2 2.0 3.0 94 187
- 1.161261 2 3 tcp 1540 ------- 2 2.0 3.0 94 187
r 1.161384 3 2 ack 40 ------- 2 3.0 2.0 75 168
+ 1.161384 2 3 tcp 1540 ------- 2 2.0 3.0 95 188
- 1.161384 2 3 tcp 1540 ------- 2 2.0 3.0 95 188
r 1.161507 3 2 ack 40 ------- 2 3.0 2.0 76 169
+ 1.161507 2 3 tcp 1540 ------- 2 2.0 3.0 96 189
- 1.161507 2 3 tcp 1540 ------- 2 2.0 3.0 96 189
r 1.16163 3 2 ack 40 ------- 2 3.0 2.0 77 170
+ 1.16163 2 3 tcp 1540 ------- 2 2.0 3.0 97 190
- 1.16163 2 3 tcp 1540 ------- 2 2.0 3.0 97 190
r 1.161754 3 2 ack 40 ------- 2 3.0 2.0 78 171
+ 1.161754 2 3 tcp 1540 ------- 2 2.0 3.0 98 191
- 1.161754 2 3 tcp 1540 ------- 2 2.0 3.0 98 191
r 1.161877 3 2 ack 40 ------- 2 3.0 2.0 79 172
+ 1.161877 2 3 tcp 1540 ------- 2 2.0 3.0 99 192
- 1.161877 2 3 tcp 1540 ------- 2 2.0 3.0 99 192
r 1.162 3 2 ack 40 ------- 2 3.0 2.0 80 173
+ 1.162 2 3 tcp 1540 ------- 2 2.0 3.0 100 193
- 1.162 2 3 tcp 1540 ------- 2 2.0 3.0 100 193
r 1.162123 3 2 ack 40 ------- 2 3.0 2.0 81 174
+ 1.162123 2 3 tcp 1540 ------- 2 2.0 3.0 101 194
- 1.162123 2 3 tcp 1540 ------- 2 2.0 3.0 101 194
r 1.162246 3 2 ack 40 ------- 2 3.0 2.0 82 175
+ 1.162246 2 3 tcp 1540 ------- 2 2.0 3.0 102 195
- 1.162246 2 3 tcp 1540 ------- 2 2.0 3.0 102 195
r 1.16237 3 2 ack 40 ------- 2 3.0 2.0 83 176
+ 1.16237 2 3 tcp 1540 ------- 2 2.0 3.0 103 196
- 1.16237 2 3 tcp 1540 ------- 2 2.0 3.0 103 196
r 1.162493 3 2 ack 40 ------- 2 3.0 2.0 84 177
+ 1.162493 2 3 tcp 1540 ------- 2 2.0 3.0 104 197
- 1.162493 2 3 tcp 1540 ------- 2 2.0 3.0 104 197
r 1.162616 3 2 ack 40 ------- 2 3.0 2.0 85 178
+ 1.162616 2 3 tcp 1540 ------- 2 2.0 3.0 105 198
- 1.162616 2 3 tcp 1540 ------- 2 2.0 3.0 105 198
r 1.162739 3 2 ack 40 ------- 2 3.0 2.0 86 179
+ 1.162739 2 3 tcp 1540 ------- 2 2.0 3.0 106 199
- 1.162739 2 3 tcp 1540 ------- 2 2.0 3.0 106 199
r 1.162862 3 2 ack 40 ------- 2 3.0 2.0 87 180
+ 1.162862 2 3 tcp 1540 ------- 2 2.0 3.0 107 200
- 1.162862 2 3 tcp 1540 ------- 2 2.0 3.0 107 200
r 1.162986 3 2 ack 40 ------- 2 3.0 2.0 88 181
+ 1.162986 2 3 tcp 1540 ------- 2 2.0 3.0 108 201
- 1.162986 2 3 tcp 1540 ------- 2 2.0 3.0 108 201
r 1.163109 3 2 ack 40 ------- 2 3.0 2.0 89 182
+ 1.163109 2 3 tcp 1540 ------- 2 2.0 3.0 109 202
- 1.163109 2 3 tcp 1540 ------- 2 2.0 3.0 109 202
r 1.163232 3 2 ack 40 ------- 2 3.0 2.0 90 183
+ 1.163232 2 3 tcp 1540 ------- 2 2.0 3.0 110 203
- 1.163232 2 3 tcp 1540 ------- 2 2.0 3.0 110 203
r 1.171014 2 3 tcp 1540 ------- 2 2.0 3.0 91 184
+ 1.171014 3 2 ack 40 ------- 2 3.0 2.0 91 204
- 1.171014 3 2 ack 40 ------- 2 3.0 2.0 91 204
r 1.171138 2 3 tcp 1540 ------- 2 2.0 3.0 92 185
+ 1.171138 3 2 ack 40 ------- 2 3.0 2.0 92 205
- 1.171138 3 2 ack 40 ------- 2 3.0 2.0 92 205
r 1.171261 2 3 tcp 1540 ------- 2 2.0 3.0 93 186
+ 1.171261 3 2 ack 40 ------- 2 3.0 2.0 93 206
- 1.171261 3 2 ack 40 ------- 2 3.0 2.0 93 206
r 1.171384 2 3 tcp 1540 ------- 2 2.0 3.0 94 187
+ 1.171384 3 2 ack 40 ------- 2 3.0 2.0 94 207
- 1.171384 3 2 ack 40 ------- 2 3.0 2.0 94 207
r 1.171507 2 3 tcp 1540 ------- 2 2.0 3.0 95 188
+ 1.171507 3 2 ack 40 ------- 2 3.0 2.0 95 208
- 1.171507 3 2 ack 40 ------- 2 3.0 2.0 95 208
r 1.17163 2 3 tcp 1540 ------- 2 2.0 3.0 96 189
+ 1.17163 3 2 ack 40 ------- 2 3.0 2.0 96 209
- 1.17163 3 2 ack 40 ------- 2 3.0 2.0 96 209
r 1.171754 2 3 tcp 1540 ------- 2 2.0 3.0 97 190
+ 1.171754 3 2 ack 40 ------- 2 3.0 2.0 97 210
- 1.171754 3 2 ack 40 ------- 2 3.0 2.0 97 210
r 1.171877 2 3 tcp 1540 ------- 2 2.0 3.0 98 191
+ 1.171877 3 2 ack 40 ------- 2 3.0 2.0 98 211
- 1.171877 3 2 ack 40 ------- 2 3.0 2.0 98 211
r 1.172 2 3 tcp 1540 ------- 2 2.0 3.0 99 192
+ 1.172 3 2 ack 40 ------- 2 3.0 2.0 99 212
- 1.172 3 2 ack 40 ------- 2 3.0 2.0 99 212
r 1.172123 2 3 tcp 1540 ------- 2 2.0 3.0 100 193
+ 1.172123 3 2 ack 40 ------- 2 3.0 2.0 100 213
- 1.172123 3 2 ack 40 ------- 2 3.0 2.0 100 213
r 1.172246 2 3 tcp 1540 ------- 2 2.0 3.0 101 194
+ 1.172246 3 2 ack 40 ------- 2 3.0 2.0 101 214
- 1.172246 3 2 ack 40 ------- 2 3.0 2.0 101 214
r 1.17237 2 3 tcp 1540 ------- 2 2.0 3.0 102 195